CO2_solvation_300K.lammpsdata (written by ASE) 

3000 atoms 
3 atom types
0.0 32.000000000  xlo xhi
0.0 32.000000000  ylo yhi
0.0 32.000000000  zlo zhi

Masses 

 1 12.0110
 2 1.0080
 3 15.9990

Atoms 

     1   3    1.702065817    1.817096804    1.971540227
     2   2    2.470947977    1.826508960    2.560479809
     3   2    0.965169339    2.076503087    2.544087303
     4   3    1.968756336    1.768509269    4.887066259
     5   2    2.059085360    2.724996433    4.764220146
     6   2    2.836511462    1.417355196    4.638449984
     7   3    2.031220370    2.069691341    7.946517642
     8   2    1.509908981    2.157126916    7.134909577
     9   2    2.705872585    2.760103341    7.867183825
    10   3    1.674844684    1.747730902   10.953174117
    11   2    2.074052123    0.882095241   11.124715709
    12   2    2.048401120    2.318450498   11.640817140
    13   3    1.635860310    1.315376598   13.770172078
    14   2    2.249012471    0.737008551   13.293042090
    15   2    0.824954384    1.284300333   13.241415008
    16   3    1.370165977    1.560214039   17.516686392
    17   2    0.950092819    2.169162659   16.891515763
    18   2    1.880258100    0.960366954   16.952676025
    19   3    1.285724863    1.439350598   20.846640306
    20   2    0.393934459    1.492704437   21.220781237
    21   2    1.859061042    1.339522157   21.620874187
    22   3    1.503455121    1.834070844   23.110235849
    23   2    0.656912986    2.107270648   23.493441374
    24   2    1.924308565    2.667744685   22.853353581
    25   3    1.418652839    1.936016592   26.353769520
    26   2    0.607309584    2.296511502   25.966621309
    27   2    1.552764610    1.101102805   25.881486559
    28   3    1.611134813    1.659084685   29.652622639
    29   2    2.044131260    1.526502179   30.508808454
    30   2    2.164036482    2.319950500   29.210271745
    31   3    1.359042042    5.563680662    1.765532994
    32   2    0.686985871    5.745155694    2.438976021
    33   2    2.101288854    5.196804501    2.268116068
    34   3    1.215732707    5.234941364    4.626539714
    35   2    0.644854011    4.784193370    3.986975835
    36   2    1.888829607    5.664171683    4.078069029
    37   3    1.615655678    4.361167691    7.696265720
    38   2    2.067844170    5.045370830    7.180989263
    39   2    1.143231282    3.840163876    7.030316466
    40   3    1.551764218    5.177749704   11.190347982
    41   2    1.885671002    5.620514372   11.984441115
    42   2    2.272920860    5.269262701   10.550288091
    43   3    1.472254516    4.863256729   13.837812864
    44   2    2.146855463    4.359472607   13.359029702
    45   2    1.540401212    5.756031000   13.468450817
    46   3    1.325695273    4.834401404   17.747411938
    47   2    0.598803237    5.059224678   17.148078426
    48   2    2.063509194    4.629419717   17.154342532
    49   3    1.638376776    4.433245992   20.620858277
    50   2    1.702154622    5.171497573   19.997131426
    51   2    1.895699758    3.660604820   20.096521841
    52   3    1.401598306    4.814483528   23.788157340
    53   2    2.300715202    4.459216933   23.847255963
    54   2    1.013599197    4.345962654   23.034457746
    55   3    1.926763290    5.274378728   26.368594180
    56   2    1.128515619    4.795969304   26.100185400
    57   2    1.704579442    5.629538186   27.241872081
    58   3    1.392548431    5.107530475   30.064721080
    59   2    1.647594049    4.246328199   30.427213241
    60   2    2.231168007    5.499442585   29.779694241
    61   3    1.412317802    7.994736056    1.433422983
    62   2    1.956197270    7.957750915    2.234013651
    63   2    0.666101702    8.559538610    1.682978190
    64   3    1.140262142    8.333404854    5.305136988
    65   2    2.059407124    8.041178395    5.393987391
    66   2    0.903989130    8.637123331    6.193983626
    67   3    1.525667257    8.392641971    8.087888779
    68   2    1.472932941    7.638589399    8.693481056
    69   2    1.608591843    9.158908549    8.674469753
    70   3    1.367036075    8.219247499   11.682347600
    71   2    1.220240036    8.695225698   10.851676864
    72   2    1.200364838    7.292817909   11.454165416
    73   3    1.543493142    8.600278805   13.378290570
    74   2    2.030178688    7.811605026   13.659802638
    75   2    0.969106041    8.802442913   14.131501913
    76   3    1.790930083    8.073597275   17.314737709
    77   2    2.412793301    7.853725314   16.605470021
    78   2    1.416505736    8.924424594   17.042676179
    79   3    1.514370972    7.484582644   20.387487641
    80   2    2.283313406    7.952658957   20.030065910
    81   2    1.885851627    6.667613539   20.751742772
    82   3    1.655467973    8.548903856   23.464633047
    83   2    2.394948219    8.170581313   22.966477233
    84   2    1.006479486    8.777739597   22.783042010
    85   3    1.325427443    7.922098642   26.885920442
    86   2    0.477211188    7.567998996   27.191306788
    87   2    1.697663759    8.348974538   27.671627314
    88   3    1.607193955    7.889763442   29.966839273
    89   2    1.789381533    7.659219140   29.043922588
    90   2    2.220947420    8.615661644   30.152572085
    91   3    1.576592866   11.481751013    1.551125850
    92   2    1.461397713   10.771418715    2.199413054
    93   2    1.749669103   12.266556537    2.091720985
    94   3    1.391684822   11.076752650    4.451479008
    95   2    1.496251487   10.570236915    5.270396475
    96   2    2.293887259   11.348547246    4.227254447
    97   3    1.674398003   11.208207000    8.044018231
    98   2    2.046045947   12.102631685    8.044713062
    99   2    0.716633814   11.352437212    8.042121343
   100   3    1.499365791   10.710409091   11.066985231
   101   2    1.215774860   10.387831872   10.198861785
   102   2    1.381483897   11.670102115   11.010316420
   103   3    1.452756409   10.872416585   14.215882700
   104   2    2.104250932   11.589090091   14.208659960
   105   2    0.633071063   11.297942841   13.924058210
   106   3    1.676898676   11.767904500   17.340153014
   107   2    2.254312375   12.272480692   17.931857739
   108   2    1.067307053   11.312744587   17.939607517
   109   3    1.649957592   11.111963254   19.899502566
   110   2    1.563541496   11.121469906   18.934847147
   111   2    1.373131517   12.000345038   20.168320951
   112   3    1.540394726   11.201226665   24.390575311
   113   2    0.820214169   11.003692120   23.773778535
   114   2    2.279898053   11.448304795   23.815940278
   115   3    1.449708564   11.332053631   26.650471951
   116   2    2.398035430   11.308425143   26.846012339
   117   2    1.221588896   10.405533888   26.484216792
   118   3    1.223803955   11.487603790   30.018555054
   119   2    1.159010771   11.883905024   29.137155388
   120   2    0.631093475   12.027241534   30.562249441
   121   3    1.795140311   13.955629607    2.314052057
   122   2    1.571980536   14.882610694    2.484416292
   123   2    2.019271989   13.937904838    1.371943243
   124   3    1.056785425   14.496094646    5.597113720
   125   2    1.616416873   14.820185488    6.318151834
   126   2    1.531329432   13.720885670    5.262483742
   127   3    1.188675606   14.149842151    8.058499378
   128   2    1.905349570   13.875736486    7.467430255
   129   2    1.430364873   13.765159271    8.913907804
   130   3    1.394157010   13.813380191   11.233528744
   131   2    2.091546819   14.054465721   10.606118658
   132   2    0.684214335   13.467037636   10.673041075
   133   3    1.192923910   14.459683703   13.907802202
   134   2    2.026065934   14.721385809   14.326734858
   135   2    0.844165855   13.769385126   14.490875000
   136   3    1.981265105   14.000909549   17.255144254
   137   2    1.946675193   14.941215395   17.484810638
   138   2    2.899606606   13.860211293   16.981335774
   139   3    1.796439473   13.909689657   20.593052453
   140   2    2.602190619   13.791411267   20.068749574
   141   2    1.093154755   13.975212333   19.930319040
   142   3    1.959633055   13.730193305   23.646343987
   143   2    2.680346992   14.336106804   23.419279133
   144   2    1.162650059   14.190593189   23.344734561
   145   3    1.640518341   14.533886148   26.213100988
   146   2    1.570546991   13.748794064   26.775997625
   147   2    1.528882568   15.273815331   26.828048508
   148   3    1.135090754   14.452495712   29.791937099
   149   2    0.420955992   14.356584262   30.439185683
   150   2    1.935375635   14.516440183   30.333761248
   151   3    1.610928471   17.547471208    1.668013115
   152   2    1.161164532   16.704530106    1.509013454
   153   2    2.355835393   17.535999549    1.049062168
   154   3    1.582341618   17.532977663    4.737489421
   155   2    1.577794374   17.078680375    3.882088058
   156   2    2.291774416   17.095845898    5.231188843
   157   3    2.118413232   17.473278745    7.671488103
   158   2    2.942933081   17.950933339    7.497904399
   159   2    1.478318359   18.173712438    7.865883033
   160   3    1.708407962   17.101402229   11.342242736
   161   2    1.604626940   16.561892889   12.139912697
   162   2    2.617367549   17.431087515   11.398972587
   163   3    1.865531293   17.159971477   14.503087029
   164   2    1.898444281   17.355332511   15.451174049
   165   2    2.614230287   16.562183448   14.360898835
   166   3    1.617774654   17.622633390   17.925712028
   167   2    2.079079246   17.576414856   18.776112001
   168   2    2.229378883   18.109091685   17.353508578
   169   3    1.526710545   17.198433174   20.183265983
   170   2    1.124744777   16.804399220   19.395053474
   171   2    0.978590389   16.873964556   20.912925222
   172   3    1.301168213   17.362545809   23.731664071
   173   2    2.018874591   17.475283830   23.091112833
   174   2    0.500461889   17.351192238   23.186816686
   175   3    1.633519712   17.613040068   26.723185462
   176   2    1.044880803   18.333148804   26.452878531
   177   2    2.258855750   17.533038082   25.987880956
   178   3    1.965201461   17.262323196   30.640680498
   179   2    2.815472381   17.173792803   30.185356517
   180   2    1.751093385   18.203155861   30.556360738
   181   3    1.794319009   20.195127418    1.476288636
   182   2    0.855720624   19.957235395    1.499924478
   183   2    1.831382916   21.048298744    1.933282235
   184   3    1.635504405   20.440575743    5.147894270
   185   2    2.278538910   20.968590512    5.643701918
   186   2    2.135051794   19.655931563    4.877886656
   187   3    1.742942470   20.447055964    7.819958358
   188   2    1.539617889   20.195678159    6.906948770
   189   2    1.117493084   21.161471335    8.011117813
   190   3    1.021200884   20.370435678   11.440951020
   191   2    1.247412419   20.445306906   10.502153472
   192   2    1.838406202   20.055334649   11.854478533
   193   3    1.606081471   20.042993790   14.302860829
   194   2    1.232155566   20.704060222   13.701787802
   195   2    2.159890625   20.560900311   14.905510355
   196   3    1.661362836   20.203998822   17.464299978
   197   2    1.346345971   19.736112633   16.676921364
   198   2    2.117954593   20.980525098   17.108422042
   199   3    1.527337755   20.172060296   20.610028181
   200   2    1.540123962   19.231563184   20.378900747
   201   2    2.237137535   20.554849831   20.073581876
   202   3    1.735079047   20.867458859   23.941679209
   203   2    0.969890849   20.911081133   23.349477965
   204   2    2.297602146   20.184442748   23.547756692
   205   3    1.167060528   20.243698978   26.792693944
   206   2    0.598954194   19.570521374   26.389946751
   207   2    0.932625341   20.216666511   27.732070111
   208   3    1.708626779   20.655545873   31.028696024
   209   2    1.745820455   21.416853467   30.431079447
   210   2    1.680848814   19.891761102   30.433734344
   211   3    1.781600972   23.972899588    2.100033005
   212   2    1.640016675   23.118223108    2.533161387
   213   2    0.945131437   24.443332727    2.230913000
   214   3    1.716875418   23.536493300    5.218978197
   215   2    2.600698438   23.724467348    4.870207753
   216   2    1.458267679   22.716771821    4.772551351
   217   3    1.306811161   23.526153207    7.825077527
   218   2    1.000493084   24.206356880    8.442823747
   219   2    1.667692478   22.834122203    8.398641786
   220   3    1.597041983   24.379858646   10.558462764
   221   2    0.888028881   24.064768347   11.138235755
   222   2    1.914144278   23.577291001   10.118633816
   223   3    1.780516577   23.071642538   14.044314562
   224   2    2.323107626   23.186003588   14.838439676
   225   2    0.919142966   23.437148965   14.294432031
   226   3    1.870397735   23.673015499   16.983073699
   227   2    1.853405551   23.555323336   17.944311450
   228   2    2.195747063   22.824179209   16.648793933
   229   3    1.324484080   23.764077425   20.180970935
   230   2    0.714108361   24.496823570   20.350212663
   231   2    1.992611743   23.850164370   20.876896691
   232   3    1.648425236   23.554404089   23.360299337
   233   2    1.591376689   24.236989277   24.045092093
   234   2    1.141704728   23.921352612   22.620906814
   235   3    2.212413541   23.787928425   25.968174363
   236   2    1.495690768   23.679141189   26.610507609
   237   2    2.976436223   24.035928820   26.509361336
   238   3    1.579340438   23.382164029   29.971474853
   239   2    1.145200524   23.636755655   30.799015688
   240   2    2.517979562   23.332064645   30.205066038
   241   3    1.275403575   26.624488898    1.949123501
   242   2    2.025543851   27.217890450    1.796537920
   243   2    1.031903642   26.787245322    2.872344126
   244   3    1.812620504   26.355891858    4.773942801
   245   2    1.777582130   25.422785083    5.031240786
   246   2    1.950672317   26.824536819    5.610263189
   247   3    1.424509971   26.493906847    8.652925554
   248   2    1.121102400   25.789931425    8.060911495
   249   2    1.331137657   27.300533537    8.124954732
   250   3    1.712456658   26.363474173   11.448962642
   251   2    1.773167428   25.450031110   11.765276043
   252   2    0.989237802   26.340898956   10.805096942
   253   3    2.210279912   27.065342330   13.829072388
   254   2    2.939004530   26.792796312   13.252186530
   255   2    1.446142248   26.577987928   13.487462214
   256   3    1.441209916   27.141404671   17.108358565
   257   2    1.645900118   26.237220960   17.388843738
   258   2    0.489758455   27.226639879   17.268337537
   259   3    1.648904234   26.994127932   20.186659860
   260   2    2.507805762   27.022840814   19.739913926
   261   2    1.478716094   26.048214904   20.306671260
   262   3    1.595672152   25.680502893   23.248209583
   263   2    1.083878021   26.320817004   23.764138649
   264   2    0.955773404   25.326173189   22.613309395
   265   3    1.453574282   26.301767764   27.232405662
   266   2    1.824025637   25.694443116   26.575107587
   267   2    1.400306404   27.148555180   26.765252797
   268   3    1.106254702   26.565816740   29.873607099
   269   2    1.252049383   25.817531120   29.276170293
   270   2    0.953608853   27.314549209   29.278445667
   271   3    2.059392284   29.348621156    2.175893714
   272   2    1.475719342   28.756448471    2.672658851
   273   2    1.527843729   30.148044885    2.047456843
   274   3    1.605236790   29.537920286    5.063247562
   275   2    1.036995757   28.978210379    4.513752209
   276   2    1.237756335   29.441766792    5.954219399
   277   3    1.550806875   29.623180510    8.091568152
   278   2    2.389535103   29.403663047    8.523384361
   279   2    1.796445366   29.777873519    7.167528111
   280   3    1.416262403   29.862388297   11.412961514
   281   2    0.920984350   29.225715893   10.876802866
   282   2    2.159298160   30.117792541   10.846582903
   283   3    2.019788127   29.395656147   14.968500132
   284   2    2.390301207   28.928430163   14.205258275
   285   2    2.044671172   30.327976433   14.707199705
   286   3    1.010356207   29.764209373   17.532950990
   287   2    0.404435661   29.554078178   16.807125000
   288   2    0.428381623   29.876244583   18.299026633
   289   3    1.434557999   29.644531128   23.772601065
   290   2    0.659625315   29.064939870   23.731717052
   291   2    1.532987778   29.837909796   24.716547283
   292   3    1.688177678   29.638648822   26.904699923
   293   2    0.881065601   29.134084693   26.725525907
   294   2    2.000654415   29.287823909   27.751693645
   295   3    1.636355384   30.052310936   30.027609422
   296   2    2.428259899   29.843980310   29.510305079
   297   2    1.000238220   30.363944819   29.367035828
   298   3    4.409229820    1.707963153    2.002415432
   299   2    4.524291429    0.921746522    2.556258757
   300   2    4.055082167    2.373301837    2.610709825
   301   3    4.900657377    1.901209620    4.978569796
   302   2    4.193839423    2.004822176    4.324512449
   303   2    4.568936470    1.214094398    5.575187015
   304   3    5.046769370    1.703724521    8.277682487
   305   2    5.146778263    2.341329397    7.555479996
   306   2    4.998013775    0.846889975    7.828710719
   307   3    4.591274344    1.827358854   11.550479097
   308   2    3.959538558    1.232436548   11.120251784
   309   2    5.206941271    2.067214964   10.842283165
   310   3    4.932977563    2.131885510   14.592118426
   311   2    4.375943403    2.768264074   15.064192004
   312   2    5.066585780    1.417370526   15.232224179
   313   3    4.657885677    2.072546172   17.191142692
   314   2    4.046991831    1.776812348   17.882133580
   315   2    5.300177144    2.620986584   17.665266073
   316   3    4.797433680    1.790361888   20.462051238
   317   2    4.171927104    2.340368083   19.967730589
   318   2    4.641805124    2.032025186   21.386981937
   319   3    4.851623536    1.683356894   24.228544950
   320   2    4.808115158    1.340407802   23.323773633
   321   2    4.648547711    0.913990465   24.780771083
   322   3    4.332683554    1.526241557   26.962286587
   323   2    4.990058713    1.747254614   27.638399982
   324   2    3.822415204    0.804669923   27.358618244
   325   3    4.918264570    2.005891356   29.972479357
   326   2    5.418779929    2.821038825   30.124588443
   327   2    4.070061623    2.313938856   29.620660238
   328   3    4.685681722    4.731286122    1.812649334
   329   2    4.358593669    3.819716445    1.799522092
   330   2    4.362973309    5.083914218    2.655045262
   331   3    4.460589909    5.293937673    4.956373788
   332   2    4.902611873    4.712249799    4.320469710
   333   2    3.703707350    5.645971422    4.465131255
   334   3    4.451481523    4.888075463    8.133223104
   335   2    3.604795099    4.501668135    7.865026030
   336   2    4.323358881    5.107418238    9.067884288
   337   3    4.465117619    4.707635954   11.284949208
   338   2    4.617859149    4.105668758   10.541697087
   339   2    4.545768485    5.589509338   10.892631776
   340   3    4.693564790    4.854665043   14.148441701
   341   2    4.445927812    4.047189444   13.674334880
   342   2    5.577137127    5.063005412   13.810784463
   343   3    4.727871295    4.590883866   16.940810178
   344   2    5.438726431    3.934671970   16.894022178
   345   2    3.968183516    4.142281645   16.541124400
   346   3    4.409312191    4.919191124   20.615537791
   347   2    4.705550355    5.610765372   20.005549099
   348   2    4.485679099    4.103127888   20.099468915
   349   3    5.068860268    5.219389234   23.464651906
   350   2    5.345076894    4.828159041   24.306531651
   351   2    5.545570802    6.061811398   23.430153229
   352   3    4.618818184    4.716985881   26.622764377
   353   2    5.541039989    4.422473639   26.592970452
   354   2    4.204240389    4.124229440   27.266878690
   355   3    4.539583859    5.062248082   29.569670209
   356   2    4.241297743    5.771963130   28.981921846
   357   2    5.266036353    4.645137265   29.083456744
   358   3    4.820940895    8.560510559    1.735437466
   359   2    5.477937637    8.784179349    2.411045154
   360   2    4.045242437    8.284113413    2.245353847
   361   3    4.812167985    8.247499340    4.844635365
   362   2    4.636253759    9.143393008    5.167972518
   363   2    4.373715916    8.219619683    3.981443206
   364   3    4.678960644    8.103344765    8.025405768
   365   2    5.484211754    7.574333881    7.926227496
   366   2    4.654873664    8.318704860    8.969417442
   367   3    4.453454766    8.039110881   11.283119753
   368   2    3.724904664    8.029169051   11.921268720
   369   2    4.463048212    8.949492631   10.952618269
   370   3    5.108766793    8.327722514   14.875774644
   371   2    5.821336226    8.814118444   15.315981411
   372   2    4.301620375    8.768285769   15.179973383
   373   3    4.449804021    8.358066264   17.352858720
   374   2    4.788684113    8.227720423   18.250794375
   375   2    3.488618640    8.390803116   17.467615668
   376   3    5.354291237    7.843278958   20.257390176
   377   2    5.601404316    8.298558248   19.438992908
   378   2    4.721511606    7.169230792   19.968656384
   379   3    4.470320668    7.467882667   23.445350507
   380   2    4.163197129    6.550809651   23.497985179
   381   2    4.720016673    7.578396888   22.516072988
   382   3    4.370986550    8.128923651   26.721129163
   383   2    4.302139288    7.768825300   27.617626473
   384   2    5.271719692    8.482531777   26.679185218
   385   3    5.218408796    8.383348549   29.651473997
   386   2    6.022188143    7.986766177   29.284350884
   387   2    4.717915726    8.663671008   28.871061157
   388   3    4.424518367   11.366606972    1.459145763
   389   2    3.989648704   10.521629854    1.646282718
   390   2    3.962032784   11.699783529    0.676062969
   391   3    5.226364939   11.549164601    4.859857479
   392   2    4.504785969   11.220414607    4.303651199
   393   2    5.861045018   11.916732963    4.227249472
   394   3    4.128389796   11.609214386    7.940552332
   395   2    4.584008594   11.015184449    8.555091296
   396   2    3.549038370   12.136329420    8.510306544
   397   3    5.036904220   10.680166431   10.893845902
   398   2    4.575622585   11.371085132   11.391810556
   399   2    5.504731588   10.173732756   11.574125757
   400   3    4.643915945   11.243332408   14.060051192
   401   2    3.990070024   10.727485808   14.554526662
   402   2    5.491414202   10.982719569   14.449853509
   403   3    4.859947843   10.894053919   17.256822586
   404   2    4.115368464   10.282947624   17.358157864
   405   2    5.362767825   10.788947290   18.077945510
   406   3    4.705767021   11.339683920   20.612150973
   407   2    4.221838344   12.052741516   21.054282283
   408   2    4.916072694   10.720899126   21.326990184
   409   3    4.331760698   10.711066659   23.895280101
   410   2    4.772980604   10.583209860   24.747979243
   411   2    3.396196160   10.805683981   24.127410998
   412   3    4.784153182   11.011300694   27.160946629
   413   2    5.059166344   10.121134054   27.425690485
   414   2    4.010544754   10.859874041   26.598169441
   415   3    4.662908396   11.556804381   29.848417838
   416   2    5.587338570   11.398139562   29.606813775
   417   2    4.205195501   11.616956452   28.996949208
   418   3    5.291582013   14.860871911    1.697418834
   419   2    4.677003302   15.012351150    2.430539044
   420   2    5.925439138   14.219890785    2.051659621
   421   3    4.967110789   14.480893457    5.298636932
   422   2    4.958757446   13.805712711    5.993028302
   423   2    4.752645986   15.301203362    5.766840630
   424   3    4.349249048   14.527482883    8.432201303
   425   2    4.265191533   13.599266581    8.168635326
   426   2    4.512279407   14.993785269    7.599073833
   427   3    4.098152654   13.913825054   10.447273790
   428   2    4.419445817   14.697694422   10.916781738
   429   2    3.940580649   13.267334758   11.151077424
   430   3    4.594274440   14.572380702   14.726522103
   431   2    3.664277793   14.306844813   14.674415258
   432   2    5.081785063   13.748249579   14.580715795
   433   3    4.676399352   14.789971244   16.990919302
   434   2    3.958960656   15.093840797   16.415538379
   435   2    5.388824502   14.560864043   16.376038426
   436   3    4.124742520   14.282330703   20.509391302
   437   2    4.778620799   14.569794902   21.163551622
   438   2    3.466405193   13.801083452   21.031991764
   439   3    4.633016850   13.651930804   23.465998291
   440   2    5.109755653   12.960089306   23.947863053
   441   2    4.334295975   14.257661027   24.160242435
   442   3    4.199370621   14.451435707   26.771754515
   443   2    4.264004574   15.196465006   27.387280299
   444   2    5.009068830   14.512764801   26.243790740
   445   3    4.415659586   14.166449357   29.448969923
   446   2    4.353448045   13.341571721   28.945159637
   447   2    3.508856485   14.326538374   29.749299473
   448   3    4.580289501   17.728599370    1.530478219
   449   2    4.828285570   17.051306833    2.176923084
   450   2    5.286349418   17.690437285    0.868555834
   451   3    4.802534310   17.164707229    4.671665960
   452   2    4.586303538   17.981473688    4.198110262
   453   2    5.144165772   17.471699275    5.524403917
   454   3    4.584885595   17.035228884    7.914774078
   455   2    4.865620589   16.772571680    7.025776187
   456   2    4.930073505   17.934817646    8.013280729
   457   3    4.267658170   17.963037342   11.104230528
   458   2    3.663821006   18.543857691   11.590179700
   459   2    5.116594677   18.076471154   11.556511162
   460   3    4.457413137   17.458232395   14.151152551
   461   2    4.509941621   16.743156295   14.802324666
   462   2    4.021650677   18.179046545   14.629332678
   463   3    4.606768407   17.598558912   17.526805987
   464   2    3.889771086   18.015670454   18.026856982
   465   2    4.926641407   16.898878317   18.115233148
   466   3    4.442360152   17.231074918   20.415566815
   467   2    4.313733861   16.745055926   19.587702690
   468   2    5.395372424   17.402028278   20.441271919
   469   3    3.875694363   16.932915700   23.964762461
   470   2    4.516650239   17.574291758   24.305248162
   471   2    4.361515305   16.095008295   23.962044617
   472   3    5.130998381   17.306628894   26.899438150
   473   2    6.081600500   17.435233051   26.765517366
   474   2    4.763529460   17.325134288   26.003479258
   475   3    4.798770255   18.351680646   30.158817147
   476   2    4.639435712   18.929004063   29.397615222
   477   2    4.081443451   17.702365863   30.114649704
   478   3    4.613121585   20.200723378    1.270268026
   479   2    4.683060352   20.945553918    1.885454363
   480   2    4.548621676   19.425486308    1.847299602
   481   3    4.758154820   20.274529938    4.447449013
   482   2    4.771999926   20.627117256    5.349451613
   483   2    3.995697003   19.677257057    4.441016442
   484   3    4.500869461   20.190515957    8.600214990
   485   2    3.615738331   20.523866479    8.391556162
   486   2    4.520921967   19.310292872    8.196577267
   487   3    4.906679320   20.486481326   11.668374634
   488   2    4.572505940   20.024169206   10.885614229
   489   2    5.599269298   21.066941370   11.319801178
   490   3    4.713211295   20.283663042   14.712753652
   491   2    4.165364334   20.048007383   15.475936665
   492   2    4.616297208   19.529399039   14.112910615
   493   3    4.861836622   20.170473413   17.241367274
   494   2    3.966097481   20.537854318   17.269666686
   495   2    5.016492577   19.860138288   18.145741002
   496   3    4.404150349   20.005095908   20.730308897
   497   2    3.653799740   20.462745506   20.323308892
   498   2    4.747602370   20.643530853   21.372617020
   499   3    5.299926805   20.082102147   23.701177031
   500   2    5.052876102   20.270607246   24.618537359
   501   2    4.577767809   19.525968869   23.373579175
   502   3    4.396132946   20.322236948   26.509527458
   503   2    5.225929027   20.613898568   26.915101321
   504   2    4.550539466   20.426511069   25.559051930
   505   3    4.436324188   20.513890343   29.465911666
   506   2    3.785152542   19.803228651   29.561062289
   507   2    4.170076750   21.166187386   30.130546201
   508   3    4.801941702   23.570089815    1.753236964
   509   2    4.132146033   23.025839634    2.192877381
   510   2    4.312138129   24.352133969    1.458928292
   511   3    4.388872594   23.484389410    5.171690211
   512   2    3.592115514   23.072261162    4.806386697
   513   2    4.874592213   22.745566743    5.567083323
   514   3    4.867934282   23.311376486    8.099296104
   515   2    4.578669370   22.455783147    7.749433212
   516   2    4.096413401   23.885186344    7.982608608
   517   3    4.832710020   23.112539962   11.338470521
   518   2    5.315659852   23.296021008   10.519195012
   519   2    5.307719555   22.363582286   11.727760304
   520   3    4.439096133   23.779940562   13.946244074
   521   2    4.771690647   23.030767451   14.462227342
   522   2    4.256412181   24.459883608   14.611392345
   523   3    4.071327763   23.033363474   17.349658032
   524   2    3.596888182   23.876135328   17.297113961
   525   2    4.932976379   23.272348787   17.721902411
   526   3    4.734991355   23.339656898   20.591003900
   527   2    5.146387151   22.544457612   20.960503278
   528   2    4.300997243   23.753858073   21.351401620
   529   3    4.161612158   23.636434954   23.206261056
   530   2    4.636526721   22.802022458   23.078471623
   531   2    3.255490624   23.435054543   22.929660460
   532   3    4.426028423   23.604411468   26.457111049