test.lammpsdata (written by ASE) 

160 atoms 
1 atom types
0.0 16.235171696  xlo xhi
0.0 14.060071123  ylo yhi
0.0 57.456478726  zlo zhi

Masses 

 1 55.8450

Atoms 

     1   1    1.014698231    0.585836297   25.000000000
     2   1    5.073491155    0.585836297   25.000000000
     3   1    9.132284079    0.585836297   25.000000000
     4   1   13.191077003    0.585836297   25.000000000
     5   1    3.044094693    4.100854078   25.000000000
     6   1    7.102887617    4.100854078   25.000000000
     7   1   11.161680541    4.100854078   25.000000000
     8   1   15.220473465    4.100854078   25.000000000
     9   1    1.014698231    7.615871859   25.000000000
    10   1    5.073491155    7.615871859   25.000000000
    11   1    9.132284079    7.615871859   25.000000000
    12   1   13.191077003    7.615871859   25.000000000
    13   1    3.044094693   11.130889639   25.000000000
    14   1    7.102887617   11.130889639   25.000000000
    15   1   11.161680541   11.130889639   25.000000000
    16   1   15.220473465   11.130889639   25.000000000
    17   1    3.044094693    1.757508890   25.828497636
    18   1    7.102887617    1.757508890   25.828497636
    19   1   11.161680541    1.757508890   25.828497636
    20   1   15.220473465    1.757508890   25.828497636
    21   1    1.014698231    5.272526671   25.828497636
    22   1    5.073491155    5.272526671   25.828497636
    23   1    9.132284079    5.272526671   25.828497636
    24   1   13.191077003    5.272526671   25.828497636
    25   1    3.044094693    8.787544452   25.828497636
    26   1    7.102887617    8.787544452   25.828497636
    27   1   11.161680541    8.787544452   25.828497636
    28   1   15.220473465    8.787544452   25.828497636
    29   1    1.014698231   12.302562233   25.828497636
    30   1    5.073491155   12.302562233   25.828497636
    31   1    9.132284079   12.302562233   25.828497636
    32   1   13.191077003   12.302562233   25.828497636
    33   1    1.014698231    2.929181484   26.656995273
    34   1    5.073491155    2.929181484   26.656995273
    35   1    9.132284079    2.929181484   26.656995273
    36   1   13.191077003    2.929181484   26.656995273
    37   1    3.044094693    6.444199265   26.656995273
    38   1    7.102887617    6.444199265   26.656995273
    39   1   11.161680541    6.444199265   26.656995273
    40   1   15.220473465    6.444199265   26.656995273
    41   1    1.014698231    9.959217046   26.656995273
    42   1    5.073491155    9.959217046   26.656995273
    43   1    9.132284079    9.959217046   26.656995273
    44   1   13.191077003    9.959217046   26.656995273
    45   1    3.044094693   13.474234827   26.656995273
    46   1    7.102887617   13.474234827   26.656995273
    47   1   11.161680541   13.474234827   26.656995273
    48   1   15.220473465   13.474234827   26.656995273
    49   1    1.014698231    0.585836297   27.485492909
    50   1    5.073491155    0.585836297   27.485492909
    51   1    9.132284079    0.585836297   27.485492909
    52   1   13.191077003    0.585836297   27.485492909
    53   1    3.044094693    4.100854078   27.485492909
    54   1    7.102887617    4.100854078   27.485492909
    55   1   11.161680541    4.100854078   27.485492909
    56   1   15.220473465    4.100854078   27.485492909
    57   1    1.014698231    7.615871859   27.485492909
    58   1    5.073491155    7.615871859   27.485492909
    59   1    9.132284079    7.615871859   27.485492909
    60   1   13.191077003    7.615871859   27.485492909
    61   1    3.044094693   11.130889639   27.485492909
    62   1    7.102887617   11.130889639   27.485492909
    63   1   11.161680541   11.130889639   27.485492909
    64   1   15.220473465   11.130889639   27.485492909
    65   1    3.044094693    1.757508890   28.313990545
    66   1    7.102887617    1.757508890   28.313990545
    67   1   11.161680541    1.757508890   28.313990545
    68   1   15.220473465    1.757508890   28.313990545
    69   1    1.014698231    5.272526671   28.313990545
    70   1    5.073491155    5.272526671   28.313990545
    71   1    9.132284079    5.272526671   28.313990545
    72   1   13.191077003    5.272526671   28.313990545
    73   1    3.044094693    8.787544452   28.313990545
    74   1    7.102887617    8.787544452   28.313990545
    75   1   11.161680541    8.787544452   28.313990545
    76   1   15.220473465    8.787544452   28.313990545
    77   1    1.014698231   12.302562233   28.313990545
    78   1    5.073491155   12.302562233   28.313990545
    79   1    9.132284079   12.302562233   28.313990545
    80   1   13.191077003   12.302562233   28.313990545
    81   1    1.014698231    2.929181484   29.142488181
    82   1    5.073491155    2.929181484   29.142488181
    83   1    9.132284079    2.929181484   29.142488181
    84   1   13.191077003    2.929181484   29.142488181
    85   1    3.044094693    6.444199265   29.142488181
    86   1    7.102887617    6.444199265   29.142488181
    87   1   11.161680541    6.444199265   29.142488181
    88   1   15.220473465    6.444199265   29.142488181
    89   1    1.014698231    9.959217046   29.142488181
    90   1    5.073491155    9.959217046   29.142488181
    91   1    9.132284079    9.959217046   29.142488181
    92   1   13.191077003    9.959217046   29.142488181
    93   1    3.044094693   13.474234827   29.142488181
    94   1    7.102887617   13.474234827   29.142488181
    95   1   11.161680541   13.474234827   29.142488181
    96   1   15.220473465   13.474234827   29.142488181
    97   1    1.014698231    0.585836297   29.970985818
    98   1    5.073491155    0.585836297   29.970985818
    99   1    9.132284079    0.585836297   29.970985818
   100   1   13.191077003    0.585836297   29.970985818
   101   1    3.044094693    4.100854078   29.970985818
   102   1    7.102887617    4.100854078   29.970985818
   103   1   11.161680541    4.100854078   29.970985818
   104   1   15.220473465    4.100854078   29.970985818
   105   1    1.014698231    7.615871859   29.970985818
   106   1    5.073491155    7.615871859   29.970985818
   107   1    9.132284079    7.615871859   29.970985818
   108   1   13.191077003    7.615871859   29.970985818
   109   1    3.044094693   11.130889639   29.970985818
   110   1    7.102887617   11.130889639   29.970985818
   111   1   11.161680541   11.130889639   29.970985818
   112   1   15.220473465   11.130889639   29.970985818
   113   1    3.044094693    1.757508890   30.799483454
   114   1    7.102887617    1.757508890   30.799483454
   115   1   11.161680541    1.757508890   30.799483454
   116   1   15.220473465    1.757508890   30.799483454
   117   1    1.014698231    5.272526671   30.799483454
   118   1    5.073491155    5.272526671   30.799483454
   119   1    9.132284079    5.272526671   30.799483454
   120   1   13.191077003    5.272526671   30.799483454
   121   1    3.044094693    8.787544452   30.799483454
   122   1    7.102887617    8.787544452   30.799483454
   123   1   11.161680541    8.787544452   30.799483454
   124   1   15.220473465    8.787544452   30.799483454
   125   1    1.014698231   12.302562233   30.799483454
   126   1    5.073491155   12.302562233   30.799483454
   127   1    9.132284079   12.302562233   30.799483454
   128   1   13.191077003   12.302562233   30.799483454
   129   1    1.014698231    2.929181484   31.627981090
   130   1    5.073491155    2.929181484   31.627981090
   131   1    9.132284079    2.929181484   31.627981090
   132   1   13.191077003    2.929181484   31.627981090
   133   1    3.044094693    6.444199265   31.627981090
   134   1    7.102887617    6.444199265   31.627981090
   135   1   11.161680541    6.444199265   31.627981090
   136   1   15.220473465    6.444199265   31.627981090
   137   1    1.014698231    9.959217046   31.627981090
   138   1    5.073491155    9.959217046   31.627981090
   139   1    9.132284079    9.959217046   31.627981090
   140   1   13.191077003    9.959217046   31.627981090
   141   1    3.044094693   13.474234827   31.627981090
   142   1    7.102887617   13.474234827   31.627981090
   143   1   11.161680541   13.474234827   31.627981090
   144   1   15.220473465   13.474234827   31.627981090
   145   1    1.014698231    0.585836297   32.456478727
   146   1    5.073491155    0.585836297   32.456478727
   147   1    9.132284079    0.585836297   32.456478727
   148   1   13.191077003    0.585836297   32.456478727
   149   1    3.044094693    4.100854078   32.456478727
   150   1    7.102887617    4.100854078   32.456478727
   151   1   11.161680541    4.100854078   32.456478727
   152   1   15.220473465    4.100854078   32.456478727
   153   1    1.014698231    7.615871859   32.456478727
   154   1    5.073491155    7.615871859   32.456478727
   155   1    9.132284079    7.615871859   32.456478727
   156   1   13.191077003    7.615871859   32.456478727
   157   1    3.044094693   11.130889639   32.456478727
   158   1    7.102887617   11.130889639   32.456478727
   159   1   11.161680541   11.130889639   32.456478727
   160   1   15.220473465   11.130889639   32.456478727
